 Gaussian 16, Revision A.03,
 Gaussian 16:  ES64L-G16RevA.03 25-Dec-2016

 -----------------------
 #n CCSD/aug-cc-pVTZ Opt
 -----------------------

 -----
 Title
 -----
 Symbolic Z-matrix:
 Charge =  0 Multiplicity = 1

 SCF Done:  E(RHF) =  -40.2134314316     A.U. after    8 cycles
 E2 =    -0.2009357754D+00 EUMP2 =    -0.40414367206978D+02
 SCF Done:  E(RHF) =  -40.2135957220     A.U. after    6 cycles
 E2 =    -0.2008506459D+00 EUMP2 =    -0.40414446367932D+02
 Optimization completed.
    -- Stationary point found.

                         Standard orientation:
 ---------------------------------------------------------------------
 Center     Atomic      Atomic             Coordinates (Angstroms)
 Number     Number       Type             X           Y           Z
 ---------------------------------------------------------------------
      1          6           0        0.000000   -0.000000    0.000000
      2          1           0        1.032996   -0.315832    0.133490
      3          1           0       -0.534124   -0.097985    0.943271
      4          1           0       -0.476072   -0.625125   -0.753143
      5          1           0       -0.022800    1.038942   -0.323618
 ---------------------------------------------------------------------

 The electronic state is 1-A.
 Alpha  occ. eigenvalues --  -11.20652  -0.94301  -0.54491  -0.54491  -0.54491
 Alpha virt. eigenvalues --    0.03080   0.05047   0.05047   0.05047   0.12395
 Alpha virt. eigenvalues --    0.12395   0.12395   0.14190   0.22299   0.22299
 Alpha virt. eigenvalues --    0.22819   0.22819   0.22819   0.32989   0.32989

 Mulliken charges:
               1
     1  C   -1.184978
     2  H    0.296245
     3  H    0.296244
     4  H    0.296244
     5  H    0.296244
 Sum of Mulliken charges =   0.00000

 Dipole moment (field-independent basis, Debye):
    X=             -0.0000    Y=              0.0000    Z=             -0.0000  Tot=              0.0000
 Quadrupole moment (field-independent basis, Debye-Ang):
   XX=             -8.4158   YY=             -8.4158   ZZ=             -8.4158
   XY=             -0.0000   XZ=              0.0000   YZ=             -0.0000

 Normal termination of Gaussian 16 at Tue May  3 16:06:50 2022.
