 Gaussian 16, Revision A.03,
 Gaussian 16:  ES64L-G16RevA.03 25-Dec-2016

 -----------------------
 #n CCSD/aug-cc-pVTZ Opt
 -----------------------

 -----
 Title
 -----
 Symbolic Z-matrix:
 Charge =  1 Multiplicity = 1

 SCF Done:  E(RHF) =  -2.86251016574     A.U. after    7 cycles
 E2 =    -0.3367986155D-01 EUMP2 =    -0.28961900272852D+01
 SCF Done:  E(RHF) =  -2.86264857534     A.U. after    5 cycles
 E2 =    -0.3368698246D-01 EUMP2 =    -0.28963355577975D+01
 SCF Done:  E(RHF) =  -2.86319500453     A.U. after    6 cycles
 E2 =    -0.3371588175D-01 EUMP2 =    -0.28969108862720D+01
 SCF Done:  E(RHF) =  -2.86486188631     A.U. after    6 cycles
 E2 =    -0.3380999171D-01 EUMP2 =    -0.28986718780174D+01
 SCF Done:  E(RHF) =  -2.87320377531     A.U. after    7 cycles
 E2 =    -0.3433643111D-01 EUMP2 =    -0.29075402064181D+01
 SCF Done:  E(RHF) =  -2.90588204154     A.U. after    8 cycles
 E2 =    -0.3604926208D-01 EUMP2 =    -0.29419313036237D+01
 SCF Done:  E(RHF) =  -2.89357390644     A.U. after    7 cycles
 E2 =    -0.3534746430D-01 EUMP2 =    -0.29289213707377D+01
 SCF Done:  E(RHF) =  -2.93204733367     A.U. after    6 cycles
 E2 =    -0.3634126019D-01 EUMP2 =    -0.29683885938641D+01
 SCF Done:  E(RHF) =  -2.93227313877     A.U. after    5 cycles
 E2 =    -0.3629397759D-01 EUMP2 =    -0.29685671163574D+01
 SCF Done:  E(RHF) =  -2.93226386459     A.U. after    5 cycles
 E2 =    -0.3630079964D-01 EUMP2 =    -0.29685646642345D+01
 Optimization completed.
    -- Stationary point found.

                         Standard orientation:
 ---------------------------------------------------------------------
 Center     Atomic      Atomic             Coordinates (Angstroms)
 Number     Number       Type             X           Y           Z
 ---------------------------------------------------------------------
      1          1           0       -0.000000   -0.000000   -0.517427
      2          2           0        0.000000    0.000000    0.258713
 ---------------------------------------------------------------------

 The electronic state is 1-SG.
 Alpha  occ. eigenvalues --   -1.63255
 Alpha virt. eigenvalues --   -0.27272  -0.13576  -0.09172  -0.09172  -0.05584
 Alpha virt. eigenvalues --    0.08961   0.14676   0.20699   0.20699   0.33675
 Alpha virt. eigenvalues --    0.44744   0.44744   0.51688   0.51688   0.61815

 Mulliken charges:
               1
     1  H    0.685066
     2  He   0.314934
 Sum of Mulliken charges =   1.00000

 Dipole moment (field-independent basis, Debye):
    X=              0.0000    Y=              0.0000    Z=             -1.3025  Tot=              1.3025
 Quadrupole moment (field-independent basis, Debye-Ang):
   XX=             -0.8702   YY=             -0.8702   ZZ=              0.5297
   XY=             -0.0000   XZ=              0.0000   YZ=              0.0000

 Normal termination of Gaussian 16 at Sat May 14 15:00:27 2022.
